20
 energy: -33.863663409939 gnorm: 0.087112320549 xtb: 6.7.1 (edcfbbe)
C            2.08144000000000        0.61510000000000       -0.50843000000000
C            2.74223000000000        1.82403000000000       -1.20082000000000
N            4.11779000000000        1.79987000000000       -1.19041000000000
C            4.94357000000000        2.82704000000000       -1.82206000000000
C            6.44008000000000        2.56936000000000       -1.63760000000000
O            7.35160000000000        3.25227000000000       -2.06909000000000
N            0.61010000000000        0.69509000000000       -0.53878000000000
O            2.09556000000000        2.72494000000000       -1.73967000000000
O            6.70522000000000        1.46341000000000       -0.89746000000000
H            0.30308000000000        1.42606000000000        0.10377000000000
H            0.33842000000000        1.05068000000000       -1.46048000000000
C            2.48875300000000       -0.59340000000000       -1.19844800000000
H            2.41650000000000        0.55740000000000        0.53205000000000
H            4.61410000000000        1.08198000000000       -0.67055000000000
H            4.69985000000000        3.79446000000000       -1.37372000000000
H            4.72289000000000        2.84469000000000       -2.89418000000000
H            7.68740000000000        1.44862000000000       -0.86034000000000
H            2.02920100000000       -1.45700800000000       -0.71999900000000
H            2.17023300000000       -0.54241100000000       -2.23857600000000
H            3.57273000000000       -0.68840500000000       -1.15499800000000
20
 energy: -33.871996205878 gnorm: 0.036223917156 xtb: 6.7.1 (edcfbbe)
C            2.08837656586976        0.63273382741667       -0.50756787752049
C            2.75926819770818        1.84013635481259       -1.18459808785840
N            4.11496915012775        1.80928645042123       -1.17486044255652
C            4.93665265731179        2.82383039893121       -1.81251912736372
C            6.41850196968474        2.56832124291863       -1.62881145619142
O            7.30072990876598        3.25775322436831       -2.07945176786221
N            0.62626429662393        0.73116925895951       -0.52777276056222
O            2.12240712264216        2.72488892749112       -1.73990430961857
O            6.69856637695698        1.47487303478347       -0.90074325826818
H            0.31301373464835        1.45818638045051        0.10984256643496
H            0.34249526612221        1.04800622431388       -1.45543697132156
C            2.50136022471988       -0.62563840899917       -1.21465112798044
H            2.40694671197583        0.59752082856240        0.54044617687650
H            4.60575653990187        1.09373865303729       -0.65746256791169
H            4.70503698317081        3.80749529490956       -1.39100525414045
H            4.72142217669952        2.85654548816223       -2.88545448190128
H            7.67504776561762        1.42319652407124       -0.85004810255615
H            2.02946794746208       -1.48311571477422       -0.74240948074827
H            2.18396617184915       -0.58939889329371       -2.25512266649582
H            3.58049723214139       -0.75575309654273       -1.18226000245408
20
 energy: -33.873990883111 gnorm: 0.012207127541 xtb: 6.7.1 (edcfbbe)
C            2.09571170535810        0.64161525791707       -0.51005735959459
C            2.77339591512985        1.83667120622444       -1.19840068088864
N            4.11581471829342        1.81476390816897       -1.16406252693328
C            4.93286577809439        2.82409924124293       -1.79814155424578
C            6.40805078949090        2.57210572185433       -1.62618091658061
O            7.26763184572454        3.27925273554734       -2.09006379412671
N            0.64322811906782        0.75435810440714       -0.51888195645268
O            2.13901168150482        2.72503978585815       -1.74665096678108
O            6.69388141868611        1.49071112226717       -0.90472153385435
H            0.33979606119906        1.48893978394006        0.11029035319040
H            0.34528692485403        1.03439077470836       -1.45158847673178
C            2.50072631358549       -0.64947383597129       -1.22342685146652
H            2.41722753682438        0.60968102363161        0.53745653695652
H            4.60318171068632        1.09736595996844       -0.65052884019960
H            4.70391539070122        3.81946889764505       -1.39677246507279
H            4.71775358793607        2.86804231854112       -2.87223707018662
H            7.66454426805128        1.39552125726635       -0.83295931666984
H            2.01206006332811       -1.49334140160098       -0.74540167010439
H            2.18055957675947       -0.61353304183710       -2.26243511815949
H            3.57610359472462       -0.80190281977911       -1.19502679209818
20
 energy: -33.874371895947 gnorm: 0.006215352844 xtb: 6.7.1 (edcfbbe)
C            2.09747206750362        0.64145215160727       -0.51334228700061
C            2.77907527223334        1.83529003238277       -1.19958071358644
N            4.11958144596848        1.81932427105088       -1.15294191289521
C            4.93283180900507        2.82597382945282       -1.79084284568782
C            6.41013347837137        2.58139447057298       -1.62366958999617
O            7.25884186614748        3.29723300373137       -2.09879709225872
N            0.64909896837831        0.76243817566459       -0.51345352185490
O            2.14387091762327        2.71729472612880       -1.76177247180759
O            6.69732385181186        1.50175808424416       -0.91017930759724
H            0.35852178736130        1.51091515761861        0.10533331357819
H            0.34262219812979        1.02043314041284       -1.44865158007154
C            2.49394006459473       -0.66097399211724       -1.22754753430508
H            2.42732551524431        0.60617087821081        0.53095031260959
H            4.60741993635809        1.10069395663338       -0.64090429580896
H            4.70231636214990        3.82370078347668       -1.39437691896016
H            4.71247371028966        2.87190699881133       -2.86512312321387
H            7.66371661417392        1.37997275608559       -0.82713702690869
H            1.99352539028605       -1.49557120062861       -0.74547887778804
H            2.17367958625683       -0.62179866117297       -2.26603924171798
H            3.56697615811258       -0.82383256216599       -1.19623628472876
20
 energy: -33.874583017748 gnorm: 0.006379244790 xtb: 6.7.1 (edcfbbe)
C            2.09914892857526        0.63811333864148       -0.51597957146559
C            2.78391851090643        1.82698250882637       -1.20779449159758
N            4.12492768673148        1.82320407870528       -1.14261650943233
C            4.93370808920415        2.83103561537661       -1.78355997714722
C            6.41544929178941        2.58984305280383       -1.62648235031958
O            7.25521448198646        3.31633042982310       -2.10285654884767
N            0.65302819461349        0.76856745178615       -0.50302019726972
O            2.14835993713363        2.70192353368673       -1.78384107224868
O            6.70354069832249        1.51313721746932       -0.91575808982414
H            0.37855156731114        1.53894491172847        0.09804673746898
H            0.33679523012211        1.00083731348212       -1.44167798471570
C            2.48243273228333       -0.66947929000901       -1.23108362676217
H            2.44145129244968        0.59787310869396        0.52418597644632
H            4.61408689606032        1.10355480550366       -0.63203216310883
H            4.70176554758895        3.82781030714933       -1.38547152291692
H            4.70667283502297        2.87714388229715       -2.85711109066681
H            7.66512405330758        1.37221102826011       -0.82120209238172
H            1.97051728825076       -1.49499755412122       -0.74581985003170
H            2.16280143239850       -0.62673387606198       -2.26935559764450
H            3.55325230594180       -0.84252586404134       -1.19636097753444
20
 energy: -33.874719869495 gnorm: 0.006674591829 xtb: 6.7.1 (edcfbbe)
C            2.10197473211318        0.63306986211466       -0.51797645467708
C            2.78801407440245        1.81663831315068       -1.21728922896519
N            4.12964861723675        1.82724397110957       -1.13201493671927
C            4.93435364365575        2.83733228349891       -1.77671472937518
C            6.42042276334897        2.60182447601500       -1.62356650873630
O            7.25424212661786        3.33207919727688       -2.10406823879402
N            0.65684861722493        0.77361693621719       -0.48978783962255
O            2.15337245447270        2.68046569446582       -1.81238928248694
O            6.71006112312456        1.52156879318505       -0.92156532384076
H            0.39852693104259        1.56888132769188        0.08829066821001
H            0.33037577004098        0.97888085596480       -1.43160491969032
C            2.46909291824114       -0.67530247205474       -1.23399809354801
H            2.45608970565284        0.58866986646211        0.51834208025541
H            4.62024250090613        1.10908611374782       -0.62013649494362
H            4.70162499453635        3.83209631486876       -1.37515282411709
H            4.70197824601110        2.88126285134609       -2.84914799601541
H            7.66778225794835        1.36779599058148       -0.82366536770582
H            1.94665969780360       -1.49389305014491       -0.74848343699645
H            2.15151741049669       -0.62870645442908       -2.27265719345241
H            3.53791841512300       -0.85883487106783       -1.19620487877897
20
 energy: -33.874823524350 gnorm: 0.006310051954 xtb: 6.7.1 (edcfbbe)
C            2.10623262271086        0.62820362018141       -0.51895436251993
C            2.79179483824166        1.80675743903609       -1.22634792390059
N            4.13287768699351        1.83098201282495       -1.12299800391934
C            4.93460701590685        2.84293131293504       -1.77116504039525
C            6.42329379498847        2.60782133275334       -1.62590402139834
O            7.25403232712708        3.34336157949200       -2.10162286356705
N            0.66149453837988        0.77857283532746       -0.47539439998206
O            2.15906608283389        2.65712708213842       -1.84234762106653
O            6.71473968477668        1.52725564440861       -0.92489788766938
H            0.41676575500895        1.59569670343180        0.07861093745127
H            0.32444224856154        0.95827147760545       -1.41879582404900
C            2.45631785024419       -0.67900608404663       -1.23676746753535
H            2.46982785789421        0.58142270745018        0.51418548293825
H            4.62475255287525        1.11622433664342       -0.60775285528400
H            4.70361977445428        3.83569956989401       -1.36462623759463
H            4.69694761666957        2.88622350871313       -2.84179085075387
H            7.67046630616994        1.37135676353813       -0.82556837666695
H            1.92464643499819       -1.49322315059628       -0.75393668578033
H            2.14146185084631       -0.62799775258523       -2.27621406052004
H            3.52336016031860       -0.87390493914510       -1.19750293778684
20
 energy: -33.874923100784 gnorm: 0.005866991640 xtb: 6.7.1 (edcfbbe)
C            2.11160130595886        0.62416418341190       -0.51931618815141
C            2.79563302795303        1.79625491853993       -1.23792398806453
N            4.13478010921666        1.83548157072096       -1.11446220844838
C            4.93472791245375        2.84836719097649       -1.76515263277681
C            6.42385161770110        2.61483447823081       -1.62240013001171
O            7.25413176503656        3.34998449361931       -2.09782317479893
N            0.66727290082014        0.78414673215966       -0.45977387539958
O            2.16540253053128        2.63100126208659       -1.87609797003311
O            6.71784523923792        1.52973051196486       -0.92699529396054
H            0.43433498287702        1.61983438252014        0.06952105232612
H            0.31815433631738        0.93767200899221       -1.40322874025177
C            2.44413318376994       -0.68200598018580       -1.23982859523826
H            2.48354130724334        0.57728932167617        0.51093853114070
H            4.62748335221879        1.12773556506675       -0.59081490948373
H            4.70584937286829        3.84036094207674       -1.35601211284874
H            4.69294961749074        2.89077169207341       -2.83408647213492
H            7.67422837091494        1.37656962346547       -0.83375867950628
H            1.90363548287371       -1.49316454793278       -0.76134995184294
H            2.13190564559086       -0.62550359904250       -2.28016540662562
H            3.50928493892554       -0.88974875042014       -1.20106025388954
20
 energy: -33.875016008220 gnorm: 0.005279468972 xtb: 6.7.1 (edcfbbe)
C            2.11725588874217        0.62102511325556       -0.51959717387964
C            2.79981922633480        1.78632120818784       -1.24965046433281
N            4.13547847490335        1.84155731338094       -1.10444164632096
C            4.93493558427463        2.85312380216518       -1.75780966776070
C            6.42271310424492        2.61743017897344       -1.62155765282089
O            7.25357777484575        3.35368160723035       -2.09400910643467
N            0.67426704389790        0.79095997939518       -0.44276147008207
O            2.17235784325918        2.60136804529121       -1.91491359832207
O            6.72031387882058        1.53057765840755       -0.92789774600533
H            0.45380568969873        1.64445464343124        0.06074993764354
H            0.31077819609867        0.91448930248589       -1.38516116245700
C            2.43233943645520       -0.68599047131579       -1.24438373699153
H            2.49806789597684        0.57525683473718        0.50731903824950
H            4.62834682414068        1.14454119689757       -0.56679000273977
H            4.71030355099943        3.84585152354816       -1.34744515006918
H            4.68750496695532        2.89687587551059       -2.82500440024913
H            7.67951498448194        1.38572958062556       -0.84253274029464
H            1.88251802282838       -1.49412717254248       -0.77091091300671
H            2.12176179098264       -0.62162505409144       -2.28520233531254
H            3.49508682205874       -0.90772516557350       -1.20779100881338
20
 energy: -33.875077668811 gnorm: 0.003303931525 xtb: 6.7.1 (edcfbbe)
C            2.12107998861372        0.61873593065003       -0.52038630399763
C            2.80361735285254        1.77695169198287       -1.26138769318488
N            4.13543921840220        1.84901650778221       -1.09347716825031
C            4.93537168447387        2.85767257822497       -1.74939505821286
C            6.42126758760823        2.61919791729826       -1.61911327373622
O            7.25277192916841        3.35418830909129       -2.09361810945411
N            0.68033271817120        0.79728222661899       -0.42875104508554
O            2.17889139804285        2.57297043592023       -1.95151736499288
O            6.72263656764736        1.53010922720730       -0.92929706600233
H            0.47161240518171        1.66563363920700        0.05279856968156
H            0.30374094600204        0.89362208046807       -1.36838113371557
C            2.42275014564006       -0.69085802181644       -1.24959247216378
H            2.51122207340532        0.57336815271878        0.50292022256907
H            4.62731066476603        1.16525682268552       -0.53749179468821
H            4.71574875952795        3.85248250496484       -1.34008257107962
H            4.68176273404327        2.90274276868617       -2.81537816857338
H            7.68517127902346        1.39257054671117       -0.85327447857812
H            1.86505734950945       -1.49519519576480       -0.77879813215633
H            2.11195708843830       -0.61853586036986       -2.29004507727494
H            3.48300510948185       -0.92343626226636       -1.21552288110390
20
 energy: -33.875105909487 gnorm: 0.001957798455 xtb: 6.7.1 (edcfbbe)
C            2.12221909667509        0.61781901646820       -0.52136908035448
C            2.80580569482296        1.77246764106497       -1.26676196490898
N            4.13475868745187        1.85538856046325       -1.08516169214121
C            4.93574523058563        2.86086542493061       -1.74346475456775
C            6.42066188159194        2.61776110453150       -1.62001456356040
O            7.25249478092615        3.35132716228128       -2.09736811265897
N            0.68349961461480        0.80053694278998       -0.42331295327206
O            2.18336703943940        2.55625109086704       -1.97240888861067
O            6.72365419628917        1.52885549066460       -0.93102710353159
H            0.47996677082067        1.67489075331432        0.04766147330948
H            0.29922339575533        0.88223644691867       -1.35997207778564
C            2.41878012314786       -0.69390191471933       -1.25307385253406
H            2.51779986244964        0.57111820173363        0.49958398599470
H            4.62458000048574        1.18204942225432       -0.51452723865809
H            4.72163475767247        3.85750551157840       -1.33472389302546
H            4.67667074783065        2.90704587423192       -2.80857784306789
H            7.68781837215678        1.39451262077740       -0.86006404935406
H            1.85787517497758       -1.49554104442044       -0.78205595949269
H            2.10649571637076       -0.61741504955421       -2.29266212214288
H            3.47769585593534       -0.92999725617585       -1.22049030963728
20
 energy: -33.875115456631 gnorm: 0.005106555529 xtb: 6.7.1 (edcfbbe)
C            2.12441117601195        0.61575750296081       -0.52385695985556
C            2.80980917920373        1.76387204037122       -1.27769655333868
N            4.13430891458861        1.86870215657242       -1.06787779101640
C            4.93644001130952        2.86950328018784       -1.73058704536302
C            6.42110836074635        2.61676195397120       -1.62214556090030
O            7.25210839505451        3.34678201794696       -2.10775571729387
N            0.68900304997446        0.80584630249028       -0.41269812568725
O            2.19166548038101        2.52552100578593       -2.01285024518895
O            6.72505302759265        1.52696094916775       -0.93682330236500
H            0.49581191980500        1.69707927451206        0.03599244556446
H            0.28926956479474        0.85483896908538       -1.34756806614315
C            2.41159375872995       -0.69937735047530       -1.25899833373446
H            2.53045685639678        0.56594804745244        0.49287282111748
H            4.61948181469554        1.21400567523510       -0.47117251206815
H            4.73410707302757        3.86814099200782       -1.31986019921622
H            4.66560668539021        2.91806067772255       -2.79331787810575
H            7.68982682069606        1.38943499777884       -0.87335922332988
H            1.84620265399183       -1.49603455568277       -0.78575645335034
H            2.09551140487251       -0.61790596990332       -2.29682568889026
H            3.46897085273683       -0.94012196718697       -1.22950661083468
20
 energy: -33.875146799213 gnorm: 0.005217464241 xtb: 6.7.1 (edcfbbe)
C            2.12302083475025        0.61647272077443       -0.52524944784681
C            2.80984561690803        1.76450729992724       -1.27784249028909
N            4.13223611336159        1.87518983673519       -1.06252092367602
C            4.93648759559865        2.87294428803180       -1.72664664453054
C            6.42077788761926        2.61167468871542       -1.62588306365318
O            7.25303107956392        3.33604401308882       -2.11842307163634
N            0.68864354522048        0.80445707067573       -0.41821022429691
O            2.19419341892698        2.52115130114710       -2.01778940456685
O            6.72231829347122        1.52289383317281       -0.93901806492283
H            0.49082102661048        1.68972708277309        0.03396413684439
H            0.28965921256967        0.85630890790451       -1.34907702079464
C            2.41528469927870       -0.69923511771203       -1.25971975345063
H            2.52814620342632        0.56469697706785        0.49140936324256
H            4.61313304495312        1.22968944049069       -0.45289483503341
H            4.74252561122330        3.87258441175069       -1.31421549636205
H            4.66012316028154        2.92307534224460       -2.78806333784924
H            7.68680428318298        1.38155085552780       -0.87889691135958
H            1.85451210562047       -1.49613463074048       -0.78248777886712
H            2.09560555319160       -0.62011993367456       -2.29624471393157
H            3.47357771424130       -0.93370238790049       -1.23198131702013
20
 energy: -33.875176068194 gnorm: 0.003845490215 xtb: 6.7.1 (edcfbbe)
C            2.12350922698444        0.61691717155009       -0.52570934863459
C            2.80948747676789        1.76559018455071       -1.27794306370362
N            4.13125680673805        1.87791873099113       -1.06089841390322
C            4.93622816057639        2.87561132379270       -1.72477276750278
C            6.42047888203389        2.60926175950769       -1.62847387412769
O            7.25356632804456        3.33037238647485       -2.12340860472114
N            0.68821629498782        0.80261258622074       -0.42077774710057
O            2.19477419765920        2.52003629968118       -2.02109860146675
O            6.71928256484085        1.52028581084309       -0.94035488466203
H            0.48701658175405        1.68615426078661        0.03284218091921
H            0.29092824523926        0.85638810469463       -1.35196354433402
C            2.41778039978341       -0.69767602990186       -1.25864064944299
H            2.52637581460433        0.56616975558110        0.49191897297888
H            4.61022404228443        1.23506914752732       -0.44823018707591
H            4.74712860180583        3.87417792860157       -1.30821112919083
H            4.65692002165784        2.92847905264331       -2.78475723075097
H            7.68265061170740        1.37357687984634       -0.88171956814412
H            1.86114246232347       -1.49672976067288       -0.77983391861801
H            2.09636658698907       -0.62183784646230       -2.29500981037040
H            3.47741369321768       -0.92860174625582       -1.23274881014844
20
 energy: -33.875277769942 gnorm: 0.004012487904 xtb: 6.7.1 (edcfbbe)
C            2.12695480756752        0.61806201675629       -0.52993303832378
C            2.80948757361602        1.76454453745720       -1.28794403925663
N            4.12575101630134        1.89768533882317       -1.04479811548485
C            4.93546514557703        2.89274694292280       -1.70810393082779
C            6.41840780068986        2.59708841132400       -1.64055077873719
O            7.25593730668989        3.29899770908496       -2.15345053862552
N            0.68879376254040        0.79686971098405       -0.42731923332155
O            2.20122590964715        2.49717401634215       -2.05861718083589
O            6.70533450592738        1.50657067244308       -0.94831680786592
H            0.47818343676272        1.68006086905360        0.02256404367297
H            0.29266593148316        0.84481234933495       -1.35901360295836
C            2.42597175644360       -0.69395158832820       -1.25666422750540
H            2.52526215643457        0.57349689016616        0.49006221328748
H            4.59399340980781        1.27816380085926       -0.40085339788439
H            4.77566079432277        3.88765730136935       -1.27091258841158
H            4.63566691108375        2.96203050659060       -2.76007766520933
H            7.66441710118135        1.33410713214746       -0.90346448187214
H            1.88807788846852       -1.50098516439863       -0.76812128046270
H            2.09261222694947       -0.63129256636424       -2.29083923839740
H            3.49087755850562       -0.91006288656786       -1.24343711097998
20
 energy: -33.875373580109 gnorm: 0.008662315188 xtb: 6.7.1 (edcfbbe)
C            2.13096757092063        0.62069157070932       -0.53713091623115
C            2.81018484568964        1.76328387052726       -1.30276627268547
N            4.11547743115946        1.93097422730997       -1.01732365943310
C            4.93435778977482        2.92002982529051       -1.67814906939702
C            6.41312947352576        2.57506086733243       -1.66008919599433
O            7.25742664849840        3.24498835111314       -2.20519232160566
N            0.68989241793163        0.78892717810268       -0.43981249584022
O            2.21306864156371        2.45919234638972       -2.11687077539643
O            6.68281751566158        1.48300217904738       -0.96264072327912
H            0.46685692085663        1.67402352955476        0.00233783652831
H            0.29477215897203        0.82235127944768       -1.37370301785922
C            2.44091787678047       -0.69053597212915       -1.25370595853310
H            2.52332692068762        0.58631145848188        0.48571085211902
H            4.56553159332386        1.35037310479860       -0.32237743067073
H            4.82420771527651        3.90943692705856       -1.20786427776943
H            4.59959527812480        3.02081240571748       -2.71718615523173
H            7.63555060251076        1.27176523476117       -0.94165185008546
H            1.93295732880095       -1.50818985420771       -0.74764121622791
H            2.08680517804100       -0.64740181743985       -2.28306926290240
H            3.51290309189982       -0.88132071186576       -1.26066508950480
20
 energy: -33.875438644715 gnorm: 0.008787217918 xtb: 6.7.1 (edcfbbe)
C            2.13039660353745        0.62429566691142       -0.53968381153982
C            2.80887885670228        1.76768375452685       -1.30448562716778
N            4.10969066716971        1.94112749309944       -1.01241227051031
C            4.93368768916451        2.92919324454112       -1.66655390756658
C            6.40742789832074        2.56302016236347       -1.66801825982323
O            7.25396082100317        3.21835795563365       -2.22692391808429
N            0.68682158758889        0.78295466251949       -0.45385370509783
O            2.21559460621821        2.45889213809188       -2.11899021822315
O            6.66930734053936        1.46979505998072       -0.97014663630171
H            0.45519534734779        1.66522987674932       -0.00564368785042
H            0.30109502642787        0.82054890767643       -1.39436221447274
C            2.45526689645983       -0.68798393013012       -1.24773428640256
H            2.51482547895773        0.59870423361635        0.48664452583718
H            4.55198949580928        1.36752240329248       -0.31181815909200
H            4.84364715373185        3.91265955316735       -1.17923165285982
H            4.58762375969758        3.05170730613766       -2.69946705993817
H            7.61752095731622        1.24099557409764       -0.95783543335950
H            1.96570745576517       -1.51176704045523       -0.73198825984250
H            2.09166323489916       -0.65785617395822       -2.27440914960142
H            3.53044612334333       -0.86130484786167       -1.26287726810328
20
 energy: -33.875624461248 gnorm: 0.007521371688 xtb: 6.7.1 (edcfbbe)
C            2.13018361524406        0.62729215168016       -0.54308403366925
C            2.81017054317642        1.76697285722500       -1.31312403481198
N            4.10119628680770        1.96551064902322       -0.98690095333845
C            4.93326139481909        2.94595311139647       -1.63858406915062
C            6.39610210538484        2.54559882683062       -1.67954998130837
O            7.24322456219549        3.17879131193271       -2.26314742282699
N            0.68638030944404        0.77970842429659       -0.46954774111261
O            2.22540417726305        2.42769562444536       -2.16443517117035
O            6.65275819889247        1.44882032232937       -0.98770465392119
H            0.45174056355836        1.66221897680847       -0.02344602364816
H            0.30988180895212        0.81484997097347       -1.41201007102028
C            2.47065117280381       -0.68888532080221       -1.24318144627339
H            2.50896332355544        0.61044592793247        0.48535019976630
H            4.53045181389135        1.41436380637349       -0.26201981529272
H            4.87847131542338        3.92127979361740       -1.12944485271319
H            4.56518530545739        3.10124626847695       -2.66014859862283
H            7.59571051909841        1.20135122414592       -0.99908641981393
H            1.99881085507432       -1.51535678814916       -0.71720769787907
H            2.09575381503787       -0.66906848042744       -2.26502840719408
H            3.54644531392059       -0.84501265810888       -1.26748980599872
20
 energy: -33.875770607263 gnorm: 0.006723232018 xtb: 6.7.1 (edcfbbe)
C            2.12786874468120        0.63052839547072       -0.54537335852268
C            2.81179119711423        1.76720537122800       -1.31789357816059
N            4.09269636122112        1.98646546950841       -0.96258063019916
C            4.93336967534310        2.95916544632953       -1.61220926498185
C            6.38236497821597        2.52894640751039       -1.69171050709428
O            7.22801269599516        3.14313237617291       -2.29751489852162
N            0.68439831075748        0.77705295880401       -0.49090050544284