20
 energy: -33.877505613257 gnorm: 0.000759625982 xtb: 6.7.1 (edcfbbe)
C            2.10726061135984        0.70511190159828       -0.56422572633883
C            2.87494722723940        1.84007985931057       -1.25204631572663
N            4.02753157593679        2.18752349091096       -0.64498823961519
C            4.96764431270644        3.09839519363478       -1.24543670303728
C            6.17123969903386        2.40057295737181       -1.85641268567896
O            7.04128410024653        2.97624475793152       -2.46489991213222
N            0.69984668584187        0.68343757297435       -0.92303495646360
O            2.46216278328863        2.38915044979800       -2.26477183622355
O            6.17208531433292        1.09703867169673       -1.63596488090045
H            0.25706904945674        1.55041242473415       -0.63742402896536
H            0.61998228726549        0.63441320846008       -1.93473759121179
C            2.75842333918227       -0.62183241485516       -0.96920220028247
H            2.17123614718991        0.83139364873102        0.52207314727642
H            4.35434445073142        1.63781961808938        0.13518329761777
H            5.32812154518805        3.82798476694355       -0.51394946230256
H            4.44839145192809        3.63965391746893       -2.04309513720716
H            6.94414098516209        0.65088120432976       -2.03029560895165
H            2.20707919793742       -1.44117482843721       -0.51818721050023
H            2.72300859227295       -0.73314136474650       -2.05089418289421
H            3.79494764370049       -0.66018903594492       -0.64748076646253
